12501
 Atoms. Timestep: 0
8 3.99525 3.04753 12.0113
9 4.73469 3.52304 12.5401
9 4.37433 2.711 11.1177
8 0.992665 49.2739 13.8462
9 1.83995 49.7754 13.5243
9 0.397017 49.0908 13.0241
8 6.34986 7.79874 11.1547
9 5.73365 7.77574 10.3285
9 7.24962 8.20064 10.8408
8 10.1265 10.358 7.75936
9 10.0786 9.3224 7.74382
9 9.15738 10.6828 7.92384
8 9.66611 6.17386 12.7968
9 10.6738 6.30287 12.9636
9 9.14174 6.94191 13.2593
8 0.925885 7.69735 7.87785
9 1.01888 7.83211 6.87027
9 0.977299 8.6314 8.32563
8 6.9122 10.3034 4.9462
9 6.27658 10.2528 4.13199
9 7.7177 9.67392 4.83712
8 6.79333 4.56817 9.95463
9 7.54611 5.26951 10.0011
9 6.18745 4.77782 9.14511
8 5.33805 10.6716 10.1575
9 5.32861 10.3452 11.1374
9 4.67803 11.4713 10.1241
8 12.2776 3.76302 4.20596
9 11.9616 4.73783 4.26826
9 13.2866 3.75957 3.99403
8 4.70631 10.5809 3.3449
9 3.95189 10.5355 4.03839
9 4.6459 11.4652 2.84328
8 4.74347 0.0236245 6.54056
9 5.30859 49.2124 6.85088
9 5.24384 0.87704 6.84282
8 9.7233 2.86303 4.37599
9 9.83942 2.0366 4.96661
9 10.6779 3.14027 4.09024
8 6.51231 0.0815884 10.9209
9 6.27575 49.9184 11.9201
9 6.89788 49.1908 10.57
8 10.0944 7.60146 7.6267
9 11.0597 7.37142 7.93146
9 9.47303 7.00112 8.1764
8 5.97517 13.0664 4.6789
9 6.33726 12.1289 4.90084
9 6.78208 13.6364 4.36085
8 4.86976 9.09604 6.30476
9 4.04915 9.58043 5.92308
9 5.71483 9.54773 5.9188
8 10.1168 4.60037 6.5407
9 9.92136 3.98434 5.73897
9 10.5814 5.42806 6.15774
8 11.2283 11.823 9.87554
9 10.8154 11.4314 9.01625
9 10.8872 12.7995 9.96543
8 49.5194 2.30586 9.65794
9 0.450279 2.28904 9.22574
9 49.203 3.27241 9.75231
8 8.53081 2.56946 7.64841
9 9.0281 2.08739 8.41046
9 9.08463 3.38811 7.37032
8 5.79494 5.48414 5.07584
9 6.45086 4.87394 4.54634
9 5.93655 6.44361 4.76956
8 9.5838 1.27023 9.92394
9 10.5202 1.16419 10.3429
9 9.00704 1.82558 10.5749
8 0.205764 9.8623 4.64104
9 1.19494 10.0448 4.86321
9 49.6532 9.9834 5.51304
8 0.856807 10.2568 8.89064
9 1.59729 10.8219 8.43052
9 0.233339 10.9355 9.37551
8 3.29126 6.72152 11.5634
9 3.23706 6.28537 10.631
9 2.99291 7.70955 11.4247
8 12.4651 12.4096 3.74022
9 11.8885 11.5814 3.9267
9 12.9999 12.5885 4.60132
8 10.9542 6.39124 4.28319
9 10.182 7.05731 4.43933
9 11.2903 6.52265 3.30665
8 0.302387 1.0482 6.22791
9 0.996049 0.289198 6.35524
9 0.808455 1.94675 6.27475
8 6.19445 1.53338 2.54426
9 6.54642 2.28358 3.13874
9 5.36345 1.11134 2.9736
8 2.82986 11.8214 7.88447
9 3.03374 12.0126 8.88219
9 3.31095 12.5962 7.38327
8 9.56227 0.66235 13.2855
9 9.52604 1.60773 12.8907
9 9.54409 0.780491 14.3022
8 8.57026 8.9338 10.1698
9 9.22955 9.38114 10.8364
9 8.24272 9.67888 9.53146
8 1.71835 3.36097 6.36179
9 1.91625 3.15904 7.36686
9 2.64524 3.39317 5.89429
8 2.36578 9.20592 11.1777
9 1.7949 9.64609 10.4503
9 2.51361 9.85091 11.9674
8 2.22768 2.69695 8.89733
9 1.99977 3.33593 9.68888
9 3.07312 2.1772 9.1723
8 5.21296 4.93497 7.76673
9 4.36158 5.39975 8.13762
9 5.44187 5.33903 6.84497
8 3.98936 0.827005 4.06704
9 4.32516 0.422754 4.95777
9 3.86204 1.8327 4.24443
8 7.36486 3.86107 3.56779
9 8.27278 3.45629 3.88503
9 7.3936 3.91803 2.55265
8 0.481515 4.04074 3.83128
9 0.803571 3.78608 4.77139
9 1.26307 4.04981 3.18295
8 11.2505 10.2757 5.11456
9 10.9135 10.5946 6.03013
9 12.2719 10.106 5.17012
8 10.7532 4.4277 9.20378
9 10.6961 4.40511 8.1743
9 10.0483 5.10313 9.5383
8 4.90009 8.37097 8.85309
9 4.94343 8.58355 7.83314
9 4.96626 9.28853 9.33137
8 4.17963 3.31206 5.25561
9 4.65766 4.20203 5.0298
9 4.78861 2.85578 5.94908
8 12.1505 1.26344 11.0478
9 13.0002 0.77586 11.3458
9 12.2384 2.27251 11.2732
8 1.63483 4.13584 11.0542
9 2.45556 3.83044 11.6011
9 1.03757 4.75541 11.6063
8 7.58509 10.9824 8.65897
9 6.72321 10.7782 9.19978
9 7.40989 11.9397 8.32764
8 5.87775 2.3984 7.32602
9 6.92303 2.37069 7.37009
9 5.6383 3.38351 7.56562
8 7.66854 2.52433 11.4256
9 7.2242 1.63344 11.1514
9 7.31034 3.31131 10.8415
8 4.6865 1.53222 9.64683
9 5.40632 0.991973 10.1714
9 5.15766 1.88989 8.79857
8 2.75188 10.7271 5.41049
9 2.37805 11.5285 4.85809
9 2.80323 11.0728 6.38816
8 9.24275 8.46368 5.09292
9 9.38823 8.09532 6.04378
9 9.96627 9.18928 4.93228
8 9.00063 6.28274 10.1563
9 8.85765 7.3077 10.0869
9 9.23615 6.12117 11.1551
8 3.16843 6.36928 8.80097
9 3.84222 7.16255 8.8344
9 2.24842 6.76055 8.55139
8 49.7525 5.18412 6.98147
9 0.461278 4.47847 6.74272
9 0.195341 5.97766 7.44928
8 11.2064 8.6269 28.1357
9 10.8687 9.28038 28.8744
9 10.872 9.05414 27.2579
8 2.63576 49.0207 29.2238
9 3.62723 49.2589 29.0296
9 2.33937 49.6921 29.9542
8 5.97404 7.82781 22.5999
9 6.89215 8.31379 22.5635
9 5.97732 7.20316 21.7614
8 3.72316 1.86193 17.4908
9 4.6241 2.37354 17.5241
9 3.24864 1.99967 16.5776
8 8.38881 7.39556 18.8841
9 7.68265 8.15264 18.9032
9 8.29214 6.84318 19.7454
8 2.9197 11.3417 23.3349
9 3.50335 11.3791 24.1941
9 3.26763 10.5712 22.7478
8 11.2499 5.50018 19.9966
9 12.0183 6.11484 20.2919
9 10.413 5.73818 20.5629
8 9.65236 6.92062 29.598
9 9.63923 6.00705 29.0858
9 10.2683 7.53865 29.0476
8 8.03213 0.809644 19.0222
9 8.99431 0.458415 18.8661
9 8.08852 1.80658 19.2753
8 5.96945 11.042 21.2665
9 6.60373 11.3272 22.0269
9 5.69512 11.9078 20.76
8 2.64749 7.13077 22.546
9 1.7128 6.91863 22.1818
9 3.00967 7.95116 22.0372
8 5.5229 5.9344 13.0005
9 6.13837 6.46185 12.3653
9 4.59364 6.0747 12.5822
8 6.48964 2.47866 13.8763
9 7.02137 2.63575 13.003
9 6.9596 2.96737 14.6508
8 7.52238 0.746054 25.23
9 8.29877 0.0904922 25.1366
9 7.53376 1.3844 24.4125
8 5.03938 6.80301 17.9323
9 4.16615 6.26164 17.9257
9 5.49684 6.74414 17.0034
8 6.96997 0.529956 16.5592
9 7.33405 0.560398 17.5272
9 7.17808 1.43502 16.1316
8 4.53096 1.83147 20.4611
9 3.64902 2.31029 20.1974
9 5.10296 1.81629 19.6103
8 8.06971 3.50339 19.8989
9 9.07348 3.29867 19.7129
9 8.03365 4.29383 20.5456
8 6.67765 10.6021 24.8926
9 7.16145 10.6494 25.8041
9 5.6924 10.8441 25.0843
8 8.07398 13.2461 20.5292
9 8.79777 13.9516 20.303
9 7.999 13.1293 21.5511
8 10.129 2.91415 30.7128
9 11.1322 2.6598 30.7251
9 9.99505 3.81986 31.1988
8 3.06773 12.2047 15.7655
9 3.77964 11.9255 16.4537
9 2.14848 12.2917 16.2332
8 10.2127 3.47629 13.2934
9 10.9908 3.51592 12.6143
9 9.72407 4.37683 13.1879
8 6.50627 6.33453 24.7401
9 6.29284 6.92942 23.9158
9 7.24477 6.85882 25.2637
8 0.588488 11.7991 21.0805
9 0.298952 11.8836 22.0569
9 0.838495 10.8063 20.9164
8 0.627068 2.78335 24.7313
9 1.14799 3.66765 24.7175
9 49.6218 3.06306 24.6939
8 1.14839 5.7121 30.4326
9 1.35876 4.84938 29.904
9 2.0672 6.17547 30.5701
8 12.4838 6.30748 13.0188
9 12.7111 6.51099 14.0121
9 12.7273 7.17893 12.5158
8 1.8318 6.33701 13.7529
9 2.5135 6.45077 12.9776
9 0.934635 6.07855 13.3035
8 2.35787 5.76992 18.2967
9 2.3338 5.40245 17.3132
9 1.96785 6.73146 18.3014
8 10.0332 10.0657 26.0999
9 10.7819 10.7642 26.2921
9 9.16899 10.4502 26.531
8 8.25235 7.82967 26.0782
9 7.81486 8.06019 26.984
9 8.98863 8.51795 25.8931
8 3.64738 6.62608 30.8189
9 4.65405 6.39468 30.7877
9 3.51575 7.5863 31.184
8 8.67103 5.73141 16.7376
9 8.43421 6.32528 17.5526
9 9.69953 5.74352 16.6813
8 0.356128 10.7174 24.0516
9 1.31277 11.0659 23.8732
9 49.7593 11.4557 24.437
8 3.01243 10.551 13.5509
9 3.98166 10.2692 13.297
9 3.09009 11.2459 14.3136
8 6.9096 9.71906 19.0497
9 6.41322 10.1739 18.2755
9 6.48986 10.0744 19.9246
8 10.8157 8.53235 18.4066
9 9.85712 8.14852 18.5119
9 11.1198 8.81263 19.3504
8 3.72137 9.2567 17.9805
9 4.36808 8.45332 17.9937
9 4.243 10.1259 17.7796
8 7.65669 2.49453 27.3005
9 7.48158 1.73101 26.6251
9 8.41576 3.04524 26.8604
8 12.1873 2.97078 25.8292
9 12.8743 3.73849 25.7086
9 12.3874 2.44492 26.6987
8 8.22288 8.21745 13.9169
9 8.02818 9.17888 13.6379
9 7.46841 7.86579 14.519
8 1.36784 9.24412 20.6733
9 2.37704 9.37528 20.8419
9 1.25552 8.85972 19.7136
8 7.25242 49.9966 21.5083
9 7.24606 0.237691 20.5028
9 6.28469 49.8728 21.8559
8 5.48333 6.3161 27.2946
9 5.816 6.28698 26.3174
9 4.46322 6.13482 27.3062
8 5.45442 9.80086 12.7565
9 5.70982 8.88417 12.3494
9 6.33012 10.3422 12.895
8 49.5388 9.34762 16.5246
9 49.0983 10.2752 16.5929
9 0.0520562 9.24843 15.6256
8 8.45228 4.69632 23.6589
9 8.15452 3.72894 23.4325
9 7.66948 5.1972 24.1096
8 2.00147 3.71401 28.7472
9 2.79186 3.19094 29.163
9 2.40731 4.47645 28.1728
8 7.78168 11.0936 12.7451
9 8.71059 10.7819 12.4093
9 7.56363 11.9312 12.1825
8 2.20764 2.16387 15.2707
9 2.62605 1.60884 14.5032
9 1.17869 2.0642 15.2008
8 4.76463 0.873045 25.114
9 4.78486 0.695283 24.0981
9 5.7395 0.871203 25.4393
8 2.82501 5.81566 27.2802
9 2.32299 5.62336 26.3997
9 2.74771 6.82991 27.4823
8 7.80468 12.2404 23.0952
9 7.59839 13.1682 23.5329
9 7.49093 11.5396 23.7976
8 1.57383 5.43539 24.8693
9 2.48101 5.25564 24.4005
9 1.25183 6.38285 24.6173
8 11.391 6.10756 17.33
9 11.4344 5.59676 18.2239
9 11.2315 7.09075 17.601
8 0.318444 10.9145 29.7147
9 1.32789 10.6853 29.7643
9 0.203029 11.8668 30.109
8 10.2366 2.13476 15.6192
9 10.3114 2.67773 14.7362
9 11.1928 2.0255 15.9936
8 10.1448 10.3264 11.8148
9 10.6905 10.3304 12.6971
9 10.6317 10.9296 11.1253
8 1.3071 8.23293 18.1963
9 2.22653 8.69748 18.0124
9 0.605765 8.63809 17.5452
8 3.96879 9.35208 21.6814
9 4.58943 10.1157 21.3524
9 4.67896 8.69638 22.0636
8 4.25824 11.5508 25.6401
9 4.85228 12.2771 26.0792
9 3.3377 11.5899 26.1187
8 2.10359 0.574197 25.3874
9 3.1285 0.746419 25.4299
9 1.62699 1.47218 25.1921
8 11.263 9.15432 21.0891
9 11.2263 9.03051 22.1163
9 10.5426 9.85517 20.8405
8 1.07758 8.86776 14.3752
9 1.46106 7.90754 14.3075
9 1.83143 9.52918 14.1078
8 2.84641 8.5239 27.3227
9 3.2779 8.55213 26.3766
9 1.87457 8.86745 27.2599
8 6.37678 6.7033 15.5027
9 7.24671 6.22998 15.7896
9 6.01359 6.30337 14.6165
8 10.6991 8.73738 23.8089
9 11.1904 7.99435 24.3314
9 10.4944 9.44785 24.5304
8 7.78174 10.8432 27.3752
9 7.85049 11.596 28.0848
9 7.29999 10.0368 27.8141
8 4.09685 2.67174 30.1003
9 3.89617 3.25395 30.9414
9 4.91798 3.0805 29.626
8 10.5486 12.5254 22.649
9 10.741 12.4286 21.6538
9 9.55596 12.3502 22.8608
8 6.82515 8.48083 28.3408
9 6.18865 7.72389 28.0341
9 6.99138 8.38578 29.3485
8 6.05834 4.14603 28.7462
9 6.6635 3.52637 28.179
9 5.85719 4.97807 28.1627
8 0.319522 9.46148 27.4133
9 0.0516998 8.54256 27.8342
9 0.211962 10.1393 28.1855
8 9.63273 3.75146 25.9392
9 10.6142 3.43082 25.8235
9 9.33604 4.21061 25.0624
8 12.7175 2.04139 30.5809
9 12.6341 1.75551 29.5864
9 13.0486 1.25478 31.1431
8 2.23908 4.8014 15.9018
9 2.2599 3.81166 15.6036
9 2.12122 5.39887 15.0624
8 10.1176 10.4287 29.7885
9 10.6452 11.2936 29.6075
9 9.14475 10.7223 29.9056
8 5.27193 49.556 29.1167
9 5.47103 49.0018 29.9711
9 5.83456 0.416654 29.2174
8 5.54429 3.88427 21.868
9 4.89251 4.26137 22.5786
9 5.08214 3.11369 21.3525
8 49.9738 2.65339 19.2854
9 0.988547 2.83296 19.3879
9 49.5876 3.43591 18.7418
8 5.97474 6.26964 20.472
9 5.79582 5.30022 20.7725
9 5.65928 6.42155 19.4976
8 2.97886 10.1219 29.5626
9 3.54472 10.9547 29.3493
9 3.07932 9.44938 28.7822
8 3.26682 0.711523 13.2441
9 4.16751 0.217607 13.3644
9 3.47247 1.58382 12.7249
8 1.88422 11.7643 26.9109
9 1.41122 10.8584 26.8297
9 1.10198 12.4328 27.0762
8 3.805 8.33339 24.8148
9 4.72821 8.60926 24.4784
9 3.25837 7.92272 24.049
8 10.6105 49.8728 18.8611
9 11.1891 49.3841 18.1502
9 11.0177 0.805782 18.978
8 49.4314 3.14346 28.2556
9 0.462974 3.21911 28.3454
9 49.0795 2.99937 29.2191
8 6.2013 5.64896 30.9814
9 6.24881 5.16707 30.0643
9 6.29824 4.86326 31.6415
8 4.06573 5.20333 23.7244
9 3.64858 5.96123 23.1499
9 4.89911 5.54863 24.2197
8 12.3735 9.36686 16.3442
9 11.7542 9.1388 17.145
9 13.0249 10.1246 16.6161
8 13.2572 6.91286 15.5336
9 13.0561 7.9002 15.7646
9 12.6778 6.36069 16.1905
8 2.55847 3.30955 19.3856
9 2.5337 4.30597 19.0998
9 2.92609 2.76406 18.5811
8 9.09879 10.6996 20.3663
9 8.4719 10.2421 19.6856
9 8.7778 11.6826 20.393
8 7.16643 1.42169 29.7503
9 7.4726 1.86726 28.8674
9 7.07412 2.14806 30.4722
8 9.65538 11.9624 15.5951
9 10.1254 11.2962 14.9675
9 8.66002 11.741 15.675
8 5.155 11.5245 17.6416
9 5.06049 12.0783 18.5111
9 5.83987 12.0817 17.0872
8 7.85771 3.24761 16.1371
9 8.77226 2.76414 16.018
9 8.11062 4.22703 16.3791
8 8.49003 8.72237 22.2578
9 9.25841 8.7269 22.9576
9 8.62886 9.52866 21.6303
8 6.01439 3.15977 18.1605
9 6.67365 3.38137 18.9262
9 6.58092 3.22471 17.3014
8 9.04305 6.14454 21.4506
9 8.91327 5.5695 22.3044
9 8.85315 7.11943 21.7369
8 12.0762 7.16331 25.6614
9 11.8457 7.35564 26.64
9 12.6024 6.2752 25.6068
8 9.75928 4.56554 28.5004
9 9.74724 4.2682 27.5102
9 9.84206 3.75109 29.1238
8 7.43293 2.28347 22.9932
9 7.52203 1.43545 22.4068
9 6.72103 2.88976 22.5458
8 10.6187 2.90608 19.4782
9 11.2009 2.43874 20.2073
9 10.9326 3.88917 19.5035
8 1.65325 10.3199 33.9688
9 0.669789 10.2955 33.629
9 1.85545 11.297 34.2512
8 8.17082 3.11292 44.0378
9 7.73852 3.75946 43.3577
9 7.55817 3.05429 44.8587
8 10.054 1.20284 43.7998
9 9.86595 0.91579 44.7737
9 9.42809 2.02338 43.67
8 7.54987 3.03278 38.3502
9 7.16433 2.88457 37.3982
9 8.12674 3.88655 38.2269
8 3.51637 8.53107 37.4041
9 4.21592 8.27905 36.6963
9 3.99296 8.72898 38.2833
8 11.2362 10.217 48.3923
9 11.2165 10.5214 49.3595
9 10.2684 10.0639 48.0574
8 5.60141 1.65256 39.723
9 4.70306 2.1474 39.8567
9 6.28231 2.31282 39.3143
8 9.15145 0.985135 32.3141
9 9.74871 1.25714 33.1198
9 9.36543 1.70239 31.5927
8 3.55269 7.0461 33.8424
9 4.55248 6.96588 34.0027
9 3.38082 7.79561 33.1481
8 4.97299 1.54721 34.5704
9 5.50817 0.898772 33.9663
9 5.6592 1.97067 35.2189
8 9.68216 8.01566 39.3007
9 8.7327 7.60969 39.3307
9 10.0316 8.07256 40.2714
8 6.63877 0.181395 32.8992
9 6.32661 49.5005 32.1811
9 7.58282 0.525083 32.6305
8 2.7004 2.09226 44.3136
9 3.32302 1.27306 44.2086
9 3.13486 2.64721 45.075
8 5.8258 10.4387 34.7239
9 5.63251 10.9727 35.5888
9 6.56116 10.9446 34.1982
8 10.7084 6.86193 44.2598
9 11.0827 5.89674 44.2151
9 10.7002 7.22974 43.3025
8 3.06371 8.98823 32.0286
9 3.06637 9.52318 31.1414
9 2.59247 9.57504 32.7414
8 12.3073 7.34676 35.7236
9 12.0983 7.03564 34.758
9 11.5142 7.98139 35.9284
8 9.60942 8.88055 33.1303
9 10.1303 9.74454 32.9381
9 8.8758 8.73496 32.4256
8 3.06082 11.0503 45.47
9 3.11712 10.7116 46.4461
9 2.10997 11.4353 45.353
8 49.1668 6.19969 39.5802
9 0.147745 5.92371 39.5483
9 48.9955 6.90083 38.8352
8 9.22421 5.01168 37.5399
9 9.59595 4.13884 37.1019
9 10.0491 5.49766 37.9266
8 3.23696 3.05559 39.7986
9 2.48768 2.73432 39.1582
9 2.8017 3.32066 40.7006
8 11.3585 3.87952 41.582
9 11.9385 4.05935 40.7517
9 10.3918 3.65999 41.2723
8 3.97182 3.16566 46.4265
9 4.99995 3.04717 46.3691
9 3.76533 4.184 46.3424
8 6.83864 7.79423 44.6348
9 5.93533 7.32298 44.5773
9 6.67268 8.81891 44.6639
8 10.5763 6.30698 46.9388
9 9.60011 6.51623 47.1877
9 10.6808 6.54615 45.9398
8 2.24712 3.81417 42.2575
9 2.36287 3.13593 43.0343
9 1.55874 4.52839 42.5501
8 1.32987 6.2834 35.0834
9 2.24152 6.43505 34.5982
9 1.16111 7.16706 35.5828
8 2.22558 7.70461 44.5107
9 1.43653 8.38106 44.5379
9 3.04304 8.2346 44.1724
8 5.57402 11.6266 37.1322
9 6.49605 12.0861 37.0141
9 5.73105 10.7948 37.7261
8 0.874834 1.02443 46.081
9 1.69833 0.814743 46.6774
9 1.26329 1.57292 45.2929
8 9.17188 12.0285 43.7333
9 9.48289 11.1726 44.2154
9 9.48492 11.9405 42.7595
8 7.68176 7.94254 31.0576
9 7.10207 7.09147 31.1802
9 8.50133 7.63698 30.4922
8 11.6666 10.7777 33.9057
9 12.4552 10.7618 33.2449
9 12.0252 10.6705 34.8649
8 8.2621 6.78221 35.7587
9 8.93152 7.57212 35.8308
9 8.55396 6.09277 36.48
8 2.21372 0.947108 31.0426
9 1.66009 1.64474 31.5616
9 3.03145 1.45715 30.6576
8 7.69341 11.8278 33.2369
9 8.53033 12.0986 33.7866
9 7.47017 12.6646 32.6633
8 3.79751 4.0474 34.7807
9 4.22274 4.60263 35.5392
9 4.29129 3.14805 34.6999
8 2.9037 10.8964 48.2095
9 2.74548 11.9157 48.1093
9 3.28204 10.6936 49.1272
8 9.79776 10.9715 41.1451
9 8.79295 10.7617 41.3199
9 9.80756 11.0683 40.1188
8 3.34438 4.22667 32.1337
9 3.46151 5.19425 31.8053
9 3.45462 4.22312 33.1651
8 7.08209 7.14595 39.7145
9 7.34432 7.19679 40.718
9 6.49514 6.31668 39.553
8 5.84969 7.97006 35.8692
9 6.78011 7.51928 35.7361
9 5.83187 8.83099 35.2856
8 5.2935 6.8998 47.7058
9 5.08655 7.1758 48.6591
9 6.31203 6.96201 47.5426
8 12.1763 4.24315 34.0003
9 13.0203 4.43892 34.5508
9 11.8092 5.13358 33.6535
8 5.07974 5.09053 39.3705
9 4.41309 4.30807 39.2791
9 4.95804 5.35266 40.3634
8 9.50834 0.683181 46.3909
9 9.96679 49.8673 46.8348
9 10.0805 1.53262 46.5589
8 6.65614 3.30228 35.8151
9 6.11483 4.11115 36.1775
9 7.30901 3.68132 35.1113
8 2.25919 1.41831 34.6111
9 3.29617 1.46368 34.5823
9 2.00364 0.439851 34.7983
8 2.9903 7.62782 41.4126
9 3.51501 8.07572 42.1816
9 2.22454 8.27294 41.1744
8 4.40166 10.3432 40.7432
9 3.46403 10.0386 40.4791
9 4.41495 11.3728 40.751
8 11.4878 6.39369 38.1761
9 11.9078 6.78451 37.3203
9 10.8953 7.12101 38.6211
8 0.652003 2.45153 32.7255
9 1.33103 2.08757 33.4264
9 0.655435 3.49139 32.7931
8 8.03712 7.30493 42.2501
9 8.97244 7.73803 42.1596
9 7.65281 7.56987 43.1756
8 11.8837 4.36681 44.144
9 12.887 4.60465 44.1184
9 11.6133 4.1074 43.1704
8 0.628881 12.1439 45.0325
9 1.07731 12.9766 44.5974
9 0.252542 12.4071 45.9632
8 6.61697 2.54689 46.2664
9 6.73337 1.59112 45.8837
9 7.28256 2.68359 47.025
8 11.178 2.8725 46.3991
9 11.5822 3.55508 47.0612
9 11.2278 3.34872 45.4805
8 3.50674 5.77368 46.0477
9 4.17285 6.24492 46.6894
9 2.97855 6.4873 45.5236
8 10.0351 8.82665 35.8858
9 9.82379 9.0841 34.9085
9 10.5235 9.62479 36.3407
8 8.11467 12.4922 36.7394
9 8.74464 12.5976 35.9262
9 8.57115 11.8346 37.3972
8 9.16305 0.8237 38.8859
9 10.1457 1.14637 38.916
9 8.61777 1.60677 38.4943
8 9.74455 5.36103 31.8224
9 10.4433 5.88923 32.3714
9 9.62741 5.8951 30.9445
8 10.2746 9.59974 44.9502
9 11.2309 9.74298 45.3104
9 10.2454 8.6139 44.6514
8 0.123786 5.07243 32.8865
9 0.549573 5.65817 33.619
9 0.431483 5.4276 31.9617
8 4.41473 49.9762 44.7348
9 4.34008 49.0452 44.2751
9 5.42336 0.0992064 44.9351
8 3.31612 0.529483 47.1061
9 3.77628 0.239483 46.2214
9 3.59676 1.51347 47.2356
8 12.4041 49.7342 34.8927
9 11.6098 49.2261 35.3265
9 13.0261 0.0967638 35.6374
8 12.3427 12.0598 41.7844
9 11.4367 11.6523 41.5131
9 12.9955 12.0277 40.983
8 1.16973 9.65754 41.1498
9 0.74574 10.4184 40.5815
9 0.39354 9.04943 41.4666
8 5.22923 5.38861 36.7059
9 5.35328 6.37842 36.4518
9 5.19253 5.32191 37.7421
8 4.44016 11.6781 32.6434
9 5.06115 11.1969 31.9665
9 4.6219 11.1907 33.5305
8 2.7119 49.8841 37.456
9 2.31155 49.4918 36.5933
9 2.18648 0.741 37.712
8 10.4857 8.41434 41.8818
9 11.5216 8.27683 41.9733
9 10.3342 9.42792 41.7442
8 10.9085 1.86914 34.1419
9 11.4281 2.76437 34.0287
9 11.5652 1.10416 34.3662
8 8.82839 3.47393 40.7589
9 8.32396 3.18847 39.9136
9 8.1584 3.94377 41.3882
8 7.94304 7.28624 47.0845
9 8.2833 8.23406 47.3237
9 7.62161 7.33199 46.1026
8 11.436 6.9155 33.2043
9 12.1659 7.36219 32.6079
9 10.6757 7.62576 33.2498
8 4.41532 5.4558 41.9384
9 3.70517 4.73843 42.159
9 3.86588 6.31354 41.7246
8 6.39916 9.28298 38.2294
9 6.62452 8.55064 38.9292
9 6.26499 8.79992 37.3296
8 8.93513 10.5534 38.4937
9 9.42912 9.65307 38.5804
9 7.93725 10.3228 38.5873
8 0.605351 5.93669 43.0777
9 1.31506 6.44207 43.6318
9 0.0879341 6.66814 42.5651
8 1.01585 3.58853 35.8535
9 1.62575 2.9077 35.3744
9 1.35225 4.53082 35.6048
8 8.03271 4.74845 33.8662
9 8.69212 4.91806 33.0861
9 8.11264 5.55668 34.5052
8 8.80981 9.84763 47.2252
9 8.12212 10.6204 47.1883
9 9.29718 9.80027 46.3113
8 6.42445 10.3101 31.3965
9 7.0017 10.8394 32.0701
9 6.83782 9.37228 31.2834
8 10.2038 2.75724 36.6182
9 10.3658 2.38099 35.6707
9 10.8443 2.30224 37.2881
8 2.54438 11.474 42.7642
9 1.93987 10.7803 42.2995
9 2.8184 11.1197 43.6912
8 11.7325 1.8661 38.6862
9 12.4941 1.30115 39.102
9 12.0091 2.84294 38.8991
8 4.31565 9.0869 43.2566
9 4.90703 9.57942 43.9478
9 4.43705 9.60282 42.3704
8 6.23318 10.4269 44.6887
9 6.52661 10.8508 45.5836
9 6.28486 11.2005 44.0033
8 7.14111 10.6211 41.1391
9 7.16928 11.5937 40.7668
9 6.19178 10.2679 40.9662
8 6.66471 3.12812 32.1275
9 6.28295 2.26216 32.5132
9 7.20765 3.61742 32.8566
8 1.30772 2.13763 38.1195
9 1.19048 2.76327 37.2988
9 0.351005 1.85381 38.4051
8 0.196261 9.47971 44.4095
9 49.2392 9.44925 44.0338
9 0.380025 10.4627 44.6588
8 1.1402 8.87836 36.2315
9 2.02426 8.76732 36.775
9 1.40004 9.34908 35.3431
8 7.02997 4.82048 42.2851
9 7.50862 5.74016 42.3203
9 6.01018 4.99673 42.2426
8 4.59883 19.8036 4.88789
9 5.29255 19.3316 5.49414
9 5.00536 20.6988 4.56266
8 3.42066 15.1263 9.45494
9 2.624 15.4873 10.0116
9 3.24046 15.4163 8.47543
8 8.68205 17.261 6.87548
9 9.18036 17.0342 7.75618
9 9.42983 17.5028 6.20535
8 4.5999 20.6728 11.402
9 5.0165 21.3922 10.7748
9 4.06442 21.1896 12.1186
8 3.32407 16.9299 3.05087
9 4.14395 16.8799 3.69014
9 3.26926 17.8793 2.64819
8 8.60346 23.1637 4.28166
9 9.29819 22.4767 3.94479
9 9.03479 24.0837 4.31109
8 11.1945 21.6648 10.321
9 11.0114 22.6502 10.5572
9 12.1837 21.5634 10.0338
8 5.67758 16.3837 10.2355
9 6.48047 15.7769 10.079
9 4.82456 15.8512 9.9766
8 10.4677 15.6469 12.4985
9 11.4782 15.8673 12.4018
9 9.94017 16.5366 12.5682
8 10.3986 21.7336 6.68274
9 9.68525 21.1452 7.13734
9 10.2773 22.7049 7.00466
8 3.9756 13.6097 12.7698
9 4.96508 13.8065 12.9827
9 3.38254 14.1392 13.4247
8 1.46677 17.3582 4.95872
9 2.08718 17.1848 4.14526
9 1.6507 18.2976 5.33407
8 1.72696 12.6747 3.91212
9 2.51892 13.2129 3.50126
9 1.07776 12.3815 3.16571
8 6.76143 22.6414 6.17218
9 7.13238 22.7546 7.12402
9 7.53163 22.8361 5.5025
8 2.73959 16.1565 7.06929
9 2.30062 16.8849 7.66145
9 2.33983 16.3496 6.14087
8 8.91837 20.4967 11.1621
9 9.81593 20.9122 10.8416
9 8.54245 21.0672 11.9314
8 1.56001 23.5322 5.49812
9 1.64123 23.3195 4.50161
9 0.726648 24.095 5.70705
8 7.37633 16.9625 2.82446
9 7.92711 17.8289 2.99881
9 7.159 16.9361 1.83116
8 9.869 24.2607 7.81585
9 10.6868 24.6756 8.28551
9 9.152 25.0082 7.77623
8 12.4896 23.4946 12.8931
9 12.5652 24.2418 13.6038
9 11.7309 23.7599 12.2338
8 5.41728 16.6935 4.66003
9 6.20323 16.7642 3.9903
9 5.6414 17.264 5.48497
8 8.24021 18.2656 9.9634
9 8.51901 19.1078 10.5185
9 7.2263 18.1601 10.0359
8 3.9028 13.9495 3.05181
9 3.79775 14.9615 2.91693
9 4.72785 13.7539 3.64058
8 5.43204 18.8556 9.22323
9 5.33107 17.8862 9.57117
9 5.11583 19.5021 9.9503
8 9.00975 19.0923 3.07633
9 9.45279 20.005 3.24821
9 9.75326 18.3967 2.88736
8 2.45474 20.1901 9.77971
9 3.21893 20.244 10.4696
9 2.67713 20.8658 9.0308
8 2.32077 23.9789 9.58427
9 2.0397 24.0358 10.5822
9 2.92295 24.7745 9.3707
8 10.9624 14.7778 6.11757
9 10.9146 15.8048 6.12836
9 11.3751 14.4307 6.98948
8 12.5083 12.8754 13.4122
9 12.4725 13.6266 14.1173
9 12.908 13.2375 12.539
8 6.27088 18.4785 6.65166
9 7.17242 17.9693 6.73193
9 5.89108 18.6297 7.60616
8 12.2037 18.4474 8.71151
9 12.7528 18.4797 9.58977
9 11.9605 19.4089 8.46698
8 3.21059 22.0689 7.89978
9 3.57681 22.6093 7.10672
9 2.77372 22.7726 8.527
8 12.0787 19.9392 5.57805
9 12.9422 20.137 6.11636
9 11.406 20.6883 5.84312
8 10.0206 14.2423 10.2507
9 10.103 15.019 9.57149
9 10.2227 14.6929 11.1628
8 5.32731 22.2546 3.97858
9 5.74177 22.477 4.90958
9 5.98941 22.6244 3.29592
8 1.41889 18.0087 8.56903
9 1.92385 18.8297 8.94912
9 0.52979 18.3691 8.17831
8 2.86906 22.6972 2.87591
9 3.73315 22.4681 3.39826
9 3.07717 23.6448 2.49902
8 5.40799 22.4613 9.61333
9 4.78901 22.2915 8.80923
9 6.38755 22.5465 9.25761
8 3.49327 17.5164 11.9931
9 4.46057 17.2119 11.871
9 3.41777 18.2635 12.6996
8 7.82029 14.7279 6.65384
9 8.12142 15.7076 6.76785
9 7.9758 14.5015 5.66128
8 1.42611 16.4009 10.7169
9 2.144 16.8208 11.3423
9 1.34329 17.0361 9.89959
8 3.53445 12.6417 10.3503
9 3.69389 12.857 11.3558
9 3.4923 13.5883 9.92108
8 2.19414 19.9978 6.06939
9 2.34039 20.7133 6.78949
9 3.1204 19.8644 5.62145
8 0.469426 21.4947 2.62512
9 0.655614 20.5912 2.18776
9 1.37771 21.998 2.68507
8 6.42885 13.5286 8.51468
9 7.03633 14.0102 7.81156
9 5.49326 13.5636 8.08693
8 10.8504 17.1472 2.80472
9 11.7988 17.5706 2.79793
9 10.9045 16.1137 2.83531
8 10.8043 14.4907 3.48363
9 11.4308 13.6856 3.30069
9 10.8386 14.5796 4.52064
8 10.1762 16.7016 9.04856
9 11.0078 17.3073 8.91341
9 9.46413 17.2665 9.5573
8 10.5124 21.5047 3.13087
9 11.4022 21.8292 3.5539
9 10.6285 21.5267 2.12175
8 8.46073 20.1589 7.88733
9 8.49738 19.4348 8.61852
9 7.75191 19.8868 7.20038
8 8.10268 14.5556 3.91789
9 9.09357 14.4016 3.66459
9 7.82821 15.457 3.49254
8 7.58091 13.2576 10.9412
9 7.0374 13.2667 10.0563
9 8.53763 13.5657 10.6865
8 7.86132 22.6552 8.70099
9 8.68231 23.2642 8.54252
9 8.18162 21.6735 8.62055
8 11.0331 17.4756 5.50068
9 10.8827 17.3387 4.48597
9 11.3967 18.4457 5.6031
8 10.6118 24.2551 11.1596
9 10.9101 24.9335 10.4387
9 9.70192 24.5526 11.5569
8 3.14592 19.6631 2.61343
9 3.6748 19.6454 3.50325
9 3.19294 20.6115 2.24271
8 6.45069 19.32 12.9871
9 5.67875 19.6367 12.3823
9 6.97545 20.1893 13.2065
8 0.157299 19.6111 11.1723
9 1.08537 19.7599 10.7424
9 49.5665 20.3452 10.7436
8 4.26995 13.7832 6.74583
9 4.91491 13.6443 5.94766
9 3.82099 14.7075 6.66333
8 12.458 21.6843 16.2056
9 13.4715 21.8135 16.1612
9 12.1918 21.3588 15.2588
8 12.4819 14.65 15.5605
9 13.4871 14.8705 15.4134
9 12.0297 15.5307 15.8612
8 1.76082 22.7033 15.5708
9 2.28257 22.4917 14.708
9 2.3112 22.3725 16.3865
8 2.94284 19.4751 13.8639
9 2.92228 20.4801 13.6293
9 3.44504 19.3624 14.7637
8 8.94653 18.5747 27.6819
9 8.39009 19.2166 27.1142
9 9.60211 19.156 28.22
8 1.68459 16.4693 18.3094
9 2.30632 16.5583 17.4787
9 0.801383 16.0628 17.9662
8 5.48352 21.551 15.852
9 6.46498 21.3294 16.0774
9 5.43728 22.3575 15.2136
8 0.583538 18.188 13.4679
9 1.51514 18.592 13.6758
9 0.280428 18.6925 12.6142
8 3.6207 14.665 25.5559
9 3.0989 14.4442 24.6982
9 3.32651 15.5892 25.907
8 0.148983 19.1729 30.8681
9 49.821 19.1665 29.8968
9 49.3771 19.4288 31.4996
8 10.1544 16.529 26.3796
9 9.73502 17.3339 26.8768
9 10.6963 16.9102 25.5823
8 7.9819 20.5902 16.6759
9 7.75212 19.8047 17.3121
9 8.75242 20.3213 16.045
8 4.59548 15.5793 22.3023
9 5.2594 16.229 22.7422
9 4.58518 15.6957 21.2824
8 3.22703 16.8425 30.5123
9 4.00134 16.1813 30.6674
9 3.45175 17.7749 30.8708
8 5.03389 23.6987 14.1394
9 5.36508 23.9455 13.1868
9 5.32064 24.4589 14.7811
8 5.41142 15.0835 30.1148
9 6.05382 15.5932 29.494
9 4.91843 14.3447 29.6079
8 8.26737 21.3859 26.898
9 7.9693 22.377 26.8061
9 8.57886 21.1002 25.9481
8 5.25194 22.0738 19.291
9 6.22201 22.1999 18.9511
9 5.08339 22.8191 19.9837
8 2.57505 14.0068 23.0753
9 3.45972 14.477 22.798
9 2.72387 12.9801 23.0684
8 6.40571 17.306 23.7885
9 7.35808 17.6459 23.5535
9 6.23921 17.4541 24.7989
8 4.74714 24.1142 24.5283
9 5.27701 24.9865 24.3943
9 5.29901 23.3475 24.1028
8 3.34094 16.6477 16.2561
9 4.21111 16.1243 16.0376
9 3.58973 17.6542 16.2684
8 10.5614 20.8199 28.3357
9 10.7394 21.503 29.1058
9 9.68492 21.1413 27.8908
8 8.37113 15.1355 17.8604
9 8.67393 15.8078 17.142
9 9.0815 15.1096 18.6141
8 8.89054 17.7785 13.1442
9 8.73395 17.3717 14.0766
9 8.0323 18.2238 12.7911
8 11.526 17.9081 24.499
9 12.436 17.6294 24.1282
9 11.6615 18.8079 24.9888
8 9.08348 18.0819 20.4212
9 10.0324 18.1322 20.0246
9 9.09839 18.1599 21.4485
8 10.3263 23.4098 16.0272
9 11.1424 22.8001 16.1854
9 10.5436 24.3754 16.3187
8 2.62727 18.4654 19.9387
9 2.19305 17.8573 19.2232
9 1.99807 19.2653 20.1132
8 5.58272 13.5536 26.9333
9 6.52288 13.9702 26.8483
9 4.91223 14.1074 26.3568
8 2.23686 20.6499 22.1253
9 3.07137 20.1973 22.5098
9 1.47521 20.669 22.8123
8 7.99169 23.8511 14.8709
9 7.38781 24.427 15.4696
9 8.88728 23.6512 15.3707
8 6.64629 14.2628 13.2253
9 6.90227 13.9361 12.2746
9 7.54146 14.2867 13.7469
8 7.91416 21.5092 13.5267
9 8.67393 20.9948 14.0079
9 7.83211 22.4251 14.0034
8 2.56489 12.8492 31.1296
9 3.21329 12.3914 31.794
9 3.05482 12.9004 30.2231
8 3.80006 15.3769 19.6118
9 2.9558 15.8183 19.2014
9 4.62149 15.81 19.1287
8 6.6164 24.2476 29.5215
9 6.09072 23.9874 28.6711
9 6.30768 25.178 29.8551
8 3.27075 23.6255 30.3771
9 3.88647 23.9273 31.1486
9 3.33465 24.332 29.6329
8 1.88785 16.7261 21.8802
9 2.25804 17.3877 21.1726
9 2.52423 15.9254 21.9401
8 2.85304 21.8197 17.8959
9 2.27681 22.3213 18.5961
9 3.82972 21.8424 18.2338
8 2.50674 23.0416 25.5151
9 3.31357 23.5559 25.104
9 2.90654 22.2009 25.9712
8 3.1711 17.1524 26.4745
9 4.17523 17.3923 26.528
9 2.78829 17.6 25.6184
8 0.504366 13.0933 12.2778
9 1.48525 12.8307 12.3901
9 0.383983 14.0669 12.6091
8 1.00554 22.1593 30.1394
9 1.88672 22.6736 30.3426
9 1.20043 21.1535 30.1019
8 2.3297 14.6495 14.7084
9 2.6494 13.7635 15.1357
9 2.67134 15.4437 15.2773
8 8.27278 12.6059 29.4519
9 9.23456 12.9512 29.3454
9 7.84529 13.0651 30.2688
8 6.01278 16.3217 18.5378
9 6.8264 15.7329 18.2989
9 6.35537 17.2915 18.4689
8 5.39818 13.1796 19.8056
9 6.3868 13.4547 19.9345
9 4.8106 14.0266 19.7301
8 7.23969 18.7684 18.5951
9 7.98718 18.4846 19.263
9 6.42215 19.077 19.1474
8 8.96675 23.3652 23.8706
9 8.70849 23.9457 23.0517
9 9.90011 23.7089 24.1889
8 0.72513 12.9732 16.9076
9 0.41424 13.9406 16.7202
9 1.2433 13.0006 17.8128
8 1.48558 16.9492 28.5424
9 2.13989 16.8447 29.3503
9 2.07384 16.9193 27.688
8 6.07406 20.1287 27.763
9 5.88035 20.4937 28.7151
9 6.90396 20.6552 27.432
8 3.07067 22.183 13.1921
9 2.43666 22.8571 12.7215
9 3.85167 22.754 13.5827
8 10.8467 22.6854 30.2348
9 11.5391 22.9473 30.9394
9 10.0528 23.325 30.3983
8 11.7313 12.7402 17.2463
9 10.8677 12.3688 16.8155
9 12 13.5453 16.6453
8 7.52835 23.8728 26.1259
9 8.07894 23.7162 25.2667
9 7.68571 24.8673 26.3816
8 9.79707 19.9252 14.6001
9 10.6933 20.3401 14.2775
9 9.62576 19.108 13.9958
8 6.83651 13.2613 16.5631
9 7.53641 13.7922 17.1056
9 6.25143 13.9758 16.103
8 3.6552 21.1628 27.05
9 2.97013 20.6242 27.6184
9 4.55149 20.6579 27.1314
8 5.66769 21.4182 30.1216
9 6.50169 21.4666 30.7398
9 5.3773 22.3924 29.9911
8 10.1545 14.8953 19.9254
9 10.9374 14.2217 19.903
9 10.4613 15.7366 20.4169
8 6.52002 17.8994 15.2994
9 7.48267 17.7038 15.6171
9 6.52566 18.4585 14.424
8 0.993465 19.9574 17.0571
9 1.8738 20.4549 17.2758
9 0.432664 20.5513 16.4221
8 7.93025 15.0081 26.7736
9 8.85137 15.3862 26.4873
9 7.7343 15.4491 27.6851
8 3.79686 12.6941 28.7162
9 4.59594 12.9684 28.1109
9 3.00953 12.4587 28.0881
8 49.5416 18.0081 15.9441
9 49.981 17.9508 15.0051
9 0.151601 18.6494 16.4904
8 5.8599 17.7276 26.5362
9 5.89162 18.6686 26.9726
9 6.29061 17.0851 27.2081
8 11.8131 15.1765 28.0244
9 12.7228 14.9853 27.5455
9 11.1857 15.6238 27.3292
8 7.70662 24.9409 22.0571
9 7.21395 25.4734 22.7926
9 6.99236 24.4315 21.5246
8 8.97904 16.7384 15.6875
9 9.95373 16.9919 15.9523
9 9.00616 15.7954 15.2411
8 5.13692 24.0769 21.1784